file 34573110 1642507851                                        
version 2
run StopAndWait-0-20220118-13:10:43-6012
attr configname StopAndWait
attr datetime 20220118-13:10:43
attr experiment StopAndWait
attr inifile omnetpp.ini
attr iterationvars ""
attr iterationvarsf ""
attr measurement ""
attr network StopAndWait
attr processid 6012
attr repetition 0
attr replication #0
attr resultdir results
attr runnumber 0
attr seedset 0

vector 0 StopAndWait.node1 "" ETV
vector 1 StopAndWait.node2 "" ETV
vector 2 StopAndWait.node5 "" ETV
vector 3 StopAndWait.node4 "" ETV
vector 4 StopAndWait.node3 "" ETV
3	560 959167 14 224493 0.304345677613 5583.368122863448 32768 2 4 84145 230073
1	959727 956501 5 235191 0.195764119526 5828.83421052955 32768 1 3 61125 131889
2	1916228 960680 6 299894 0.195764119526 7438.891548873782 32768 1 2 50938 87278
3	2876908 988273 224497 451555 5583.533571708315 11087.343771708315 32768 2 4 84112 229678
1	3865181 974664 235201 470719 5828.983393455396 11568.412759762554 32768 1 3 61235 132507
4	4839845 974854 20 570109 0.325864119526 14036.08345323898 32768 2 4 88495 257323
2	5814699 996477 299895 598647 7438.898795738714 14730.916368774106 32768 1 2 51001 87467
0	6811176 982170 4 673712 0.195764119526 16570.972343923614 32768 1 1 32768 32768
3	7793346 1014270 451559 679291 11087.494971708315 16692.303571708315 32768 2 4 84224 230464
1	8807616 1009578 470721 703547 11568.438942377778 17255.153150044792 32768 1 3 61322 132630
2	9817194 1008296 598649 895838 14731.181568774106 21875.621058133804 32768 1 2 51060 87644
3	10825490 1011234 679299 911463 16692.380771708315 22259.2184667336 32768 2 4 83842 227912
1	11836724 995898 703551 934287 17255.338135849016 22826.266442669208 32768 1 3 61370 132742
3	12832622 1031904 911481 1135863 22259.4656667336 27800.360971708315 32768 2 4 84171 230199
4	13864526 1013745 570111 1142333 14036.19965323898 27951.267063164652 32768 2 4 88836 259146
1	14878271 1032760 934289 1170043 22826.273718003736 28617.487432291648 32768 1 3 60979 131283
2	15911031 1028160 895848 1195784 21875.731755662864 29262.107505569028 32768 1 2 50943 87293
0	16939191 1024780 673752 1346182 16572.121583929148 32857.31853783944 32768 1 1 32768 32768
3	17963971 1032155 1135873 1361055 27800.491171708315 33199.440771708315 32768 2 4 84125 229789
1	18996126 1042309 1170053 1407037 28617.5886374443 34327.345474881124 32768 1 3 61117 132039
2	20038435 1041446 1195787 1494805 29262.194519058004 36498.290686681336 32768 1 2 50957 87335
3	21079881 1047815 1361057 1586989 33199.560981582368 38755.630771708315 32768 2 4 84270 230736
1	22127696 1038466 1407041 1641159 34327.479674881124 40087.019715889984 32768 1 3 61098 131714
4	23166162 1039816 1142337 1710573 27951.416263164652 41766.407334794824 32768 2 4 88604 257932
2	24205978 1040755 1494815 1794229 36498.457886681336 43804.61929294736 32768 1 2 50939 87281
3	25246733 1046915 1587011 1814773 38756.069018046648 44290.928443457928 32768 2 4 84208 230138
1	26293648 1042181 1641175 1874977 40087.375159496928 45730.840369921648 32768 1 3 61301 132753
0	27335829 1040510 1346188 2017908 32857.391747692664 49203.466743287648 32768 1 1 32768 32768
3	28376339 1042219 1814775 2043471 44290.954643457928 49801.989321575088 32768 2 4 84303 230781
3	29418558 1048576 2043477 2115951 49802.138171708315 60609.931171708315 32768 2 4 88272 255880
3	30467134 1048576 2115953 2181487 60610.989371708315 71345.273771708315 32768 2 4 88661 258249
0	31515710 53833 2017914 2052962 49203.542352489752 50026.55515040036 1696 1 1 1696 1696
1	31569543 792667 1874985 2053139 45730.910293756512 50034.523918314576 24912 1 3 46558 100632
2	32362210 901545 1794250 2052991 43805.11267807852 50028.044291101448 28421 1 2 44220 75818
3	33263755 675456 2181489 2223703 71345.867971708315 78247.769371708315 21108 2 4 57122 166316
4	33939211 633897 1710585 2053143 41766.756534794824 50034.865818314576 19907 2 4 53578 155274

